# vtk DataFile Version 1.0
Net Charge Density
ASCII
DATASET STRUCTURED_POINTS
DIMENSIONS 256 128 1
ORIGIN 0 0 0
SPACING 0.15625 0.15625 1
POINT_DATA 32768
SCALARS rhonet float
LOOKUP_TABLE default
-8.89964e-05
-0.00016443
6.73246e-05
0.000180923
3.86278e-06
0.000191473
3.31745e-05
-3.29298e-05
0.000211425
0.00020405
2.30237e-05
0.000279595
0.000127751
-0.000183836
-0.000216214
0.000243326
0.000142679
-9.87001e-05
-2.87002e-05
2.38948e-05
4.87606e-06
0.000126141
-8.77725e-05
5.3558e-05
9.73925e-05
2.47741e-05
7.28206e-05
7.33134e-05
0.000266094
4.45558e-05
-0.000187995
-0.000141228
0.00013852
0.00019782
4.20049e-05
0.000104592
0.000146124
-7.05897e-05
3.89596e-05
2.23198e-05
0.000178941
0.00013508
8.8511e-05
0.000102748
0.000125256
6.33788e-06
2.51117e-05
8.20985e-05
5.31512e-05
0.000119897
0.000161602
-1.11038e-05
0.00015061
0.00017972
-9.1678e-05
-3.2959e-05
-3.99989e-05
0.000187685
0.000135206
0.000108328
-0.000173156
0.000276285
0.000165613
-3.84382e-05
-0.000121112
5.01915e-05
-8.66072e-05
0.000157549
1.5198e-05
-7.60979e-05
-6.64494e-05
-0.000151567
-3.41679e-05
0.000301609
7.66136e-05
-4.76973e-05
6.83876e-05
0.000145776
6.3415e-05
1.53662e-05
-0.000111346
-6.43474e-05
0.000307742
0.000107896
0.000156533
0.000151515
0.00018837
-0.000153581
0.000203115
0.00031454
8.47194e-05
-5.6747e-05
3.65078e-06
4.21897e-05
-1.17711e-05
0.000185573
-6.01257e-05
9.2515e-05
-0.000105055
0.000513904
0.00018112
-4.06466e-05
0.000103039
-1.57754e-05
1.81863e-05
0.000185247
1.56637e-05
-3.30391e-05
3.95835e-05
-5.65074e-05
9.67323e-05
0.000135004
-7.10149e-05
-0.000116246
-0.000293087
-1.20508e-05
0.000196575
0.000161801
1.39732e-05
-0.000188641
5.74627e-05
1.23903e-05
6.46161e-05
4.7017e-05
1.39867e-05
-2.69526e-05
8.53455e-05
2.44342e-05
0.00018368
2.48259e-05
3.65495e-05
0.000122553
9.48427e-05
-3.01062e-05
9.04198e-05
5.78717e-05
0.00027915
0.000120272
0.000106484
-0.000217122
-4.58106e-06
6.54801e-05
-4.92681e-06
4.93006e-05
-3.99719e-05
0.00010235
0.00016881
-3.91197e-05
3.76491e-05
0.000252592
-8.82363e-05
-4.82018e-05
0.000177523
0.000274355
0.000128818
6.23009e-05
0.000135928
8.18435e-06
4.77405e-05
6.06264e-05
0.000130789
0.000107803
-8.37162e-05
9.65771e-05
-5.18437e-05
-0.000102245
0.000160799
0.000218389
0.000229293
4.46856e-05
-5.02178e-05
-2.03331e-06
-6.93218e-06
-3.22647e-05
9.88856e-05
0.000118853
0.000188594
-3.82812e-05
-0.000114186
9.30813e-05
0.000170247
0.000170585
-5.9947e-05
-0.000114894
3.01122e-05
0.000124834
0.000147015
0.000125632
0.000105981
0.000260402
0.000187682
0.000105557
7.29118e-05
-8.07226e-05
-0.000155445
0.00030499
0.000208996
3.35153e-05
0.000190698
6.13416e-06
7.67189e-06
1.51945e-05
0.000192278
8.82993e-05
-0.000104467
0.00014671
-5.74146e-05
-8.37923e-06
-8.24681e-05
0.000302362
-2.56732e-05
-0.00012002
0.00013921
0.000212545
-6.37444e-06
-5.47461e-05
3.51253e-05
5.7791e-05
4.46551e-05
0.000108325
-9.93183e-05
-0.000142599
0.000304249
8.57086e-05
-0.000139694
0.000208727
-8.71237e-05
6.99726e-05
-0.00020923
3.6551e-05
0.000211047
-0.000121397
-8.78273e-05
0.000243595
0.000104742
7.16867e-05
0.000175833
-8.41692e-05
0.000117092
0.000292926
3.00534e-05
-0.000198833
0.000113081
8.61073e-05
0.000117134
0.000126007
4.07929e-05
2.43261e-05
0.000117619
-7.49785e-06
6.64268e-05
-0.0001827
-1.10205e-05
-0.000116789
-5.03097e-05
0.000113211
9.38515e-05
7.11111e-06
-1.07219e-06
-0.000114282
1.30755e-05
-9.59645e-05
-0.00018783
-1.47221e-05
0.000141969
-0.000105543
-2.11772e-05
0.000159347
-6.05981e-05
-0.000104908
-0.000191294
-3.15245e-05
2.67862e-05
-8.83364e-05
2.81918e-05
6.03008e-05
-2.11117e-05
-0.000153984
-6.7096e-06
-0.000122243
-5.28991e-05
-0.000213783
8.63423e-05
2.43842e-05
1.32958e-06
-1.46829e-05
-4.76752e-05
0.000114567
-3.24089e-05
-5.61215e-06
-1.98612e-05
-3.69209e-05
-3.48245e-06
-0.000116265
-5.25555e-05
-1.27149e-06
-2.64917e-05
-0.000104853
-3.60253e-05
8.13331e-05
-0.000105781
-0.000144953
7.52909e-05
4.11212e-05
-2.63747e-05
3.98705e-05
-9.31579e-05
4.86264e-05
8.56118e-07
4.31866e-06
-0.000119127
-7.30145e-05
6.05749e-05
2.7499e-05
-0.000101008
6.03882e-05
-2.35746e-05
-0.000135273
-4.44637e-06
1.76306e-05
-0.000143069
5.91768e-05
-6.20319e-06
4.06073e-05
8.06639e-05
-7.99191e-05
3.64551e-05
-5.82092e-05
-9.3237e-06
5.90807e-05
4.19957e-05
3.69132e-05
-4.19616e-05
-5.43675e-05
3.4102e-05
-4.67338e-05
-0.0001537
-6.71793e-05
6.00314e-05
-4.68118e-05
-3.43903e-05
-8.82403e-05
4.55752e-05
-0.000176053
1.12818e-05
-0.00015407
-0.000127912
-9.47628e-05
-6.21467e-05
-4.80892e-05
5.24874e-05
-3.36778e-06
-0.000122984
4.30978e-05
-0.000154295
6.54003e-05
-0.00010901
-7.15225e-05
-5.4653e-05
0.000123682
-2.69086e-05
3.0817e-05
-0.000163153
0.000118408
-4.62126e-05
-0.000235137
-5.79355e-05
-7.17838e-05
-0.000163478
5.96761e-05
1.61468e-05
-7.24096e-05
2.98856e-05
-4.80521e-05
-4.58634e-05
-7.19618e-05
-3.38638e-05
-0.000109087
7.39485e-05
9.9036e-05
3.75013e-05
8.90733e-05
1.56955e-05
-6.02787e-05
2.84289e-05
-7.58179e-05
-6.37146e-05
0.000168836
-6.8859e-05
-0.000162257
2.27819e-05
1.59431e-06
-7.45541e-05
-0.000121428
-1.7772e-06
-0.000190662
0.00010786
0.000110056
-2.80035e-05
-1.88077e-05
-0.000179983
-8.35264e-05
9.67798e-05
8.11357e-06
6.51625e-05
0.000115118
-8.75528e-05
-5.66706e-05
4.48846e-05
-0.000137129
-9.15061e-05
-0.000117078
7.77822e-05
-6.16325e-05
-7.80418e-05
-4.38608e-05
6.10383e-05
-0.000105036
5.42321e-05
3.28161e-05
8.62764e-05
-5.37976e-05
-4.0635e-05
1.56844e-05
-4.02809e-05
-0.00021114
2.38114e-05
0.000203274
-1.50737e-05
4.13628e-05
-8.67898e-05
-6.5275e-05
3.89041e-05
-0.000102638
1.51224e-05
-4.97352e-05
-2.76989e-05
2.26528e-05
-3.52249e-05
-0.000176033
-0.000125343
-3.13103e-05
-3.65777e-07
-0.000170566
-4.7553e-05
-5.78196e-05
-0.000183783
-2.11978e-05
5.88741e-05
5.74184e-06
-3.58103e-05
-5.21948e-06
-8.06735e-05
-0.000193738
-0.000104422
-3.91724e-05
4.23505e-05
-9.05199e-05
-7.6201e-05
-8.52789e-06
0.000146161
-0.000152343
-5.96845e-05
9.51999e-05
-0.000116926
9.23373e-05
-9.78988e-05
-1.47187e-05
0.000151847
2.37792e-05
-7.93705e-05
-2.82907e-05
-1.92882e-05
-2.44337e-05
-0.000142313
0.000105529
4.18117e-05
1.36646e-05
-1.15989e-05
-2.04687e-05
-2.06521e-07
-1.97631e-05
2.11211e-05
0.000109334
-0.000261437
4.28503e-05
4.0064e-05
-7.66995e-05
-6.17964e-05
-1.02728e-05
-0.000159574
-8.18924e-05
7.35669e-05
-4.22969e-05
9.2315e-06
-1.98813e-05
9.94606e-06
-8.87783e-07
-5.61635e-05
-3.99557e-05
-5.35061e-05
-0.00010272
9.00058e-05
-0.000219845
-0.000120905
-5.90219e-05
4.97604e-05
-3.80761e-05
-1.36704e-05
-2.83029e-06
-8.34798e-05
1.19549e-05
-7.01742e-05
-3.17382e-05
1.34765e-05
5.83427e-05
-0.000137647
-8.99404e-05
0.000151387
1.51158e-05
-6.14137e-06
-0.000129065
3.11773e-05
0.000173844
-0.000137103
4.43445e-05
0.000100966
9.51381e-06
9.3428e-06
4.56325e-05
-4.52995e-05
0.0002318
-1.65906e-05
-9.65686e-05
0.000247102
-6.24572e-05
-9.6212e-05
4.41667e-05
-6.7815e-05
-9.39944e-05
-3.89075e-05
6.9415e-05
5.60172e-05
3.4889e-05
-0.000183194
5.50057e-05
9.55173e-05
2.66584e-05
-3.39593e-05
0.000120549
5.00283e-06
-7.52759e-05
0.000127643
-7.99585e-05
-8.11345e-05
-0.000202426
6.17068e-05
-9.95561e-05
-5.4323e-05
-5.94816e-05
-9.60128e-05
0.000116062
-0.000147444
1.14928e-05
-7.43308e-05
0.000155804
7.66397e-05
-6.99934e-05
7.37107e-05
-2.04378e-05
-8.95965e-05
9.62397e-05
-3.38346e-05
-3.49054e-05
4.17583e-05
0.000162894
3.636e-05
8.77911e-05
-3.58351e-05
-2.20584e-05
-3.02249e-06
-1.37133e-05
3.0427e-05
5.12843e-05
-1.66395e-05
-6.64192e-05
-0.000106226
-3.41022e-05
-0.000114615
-1.21312e-05
2.69825e-05
0.000152796
4.25638e-05
-6.62485e-05
1.30309e-05
0.000125127
-3.36288e-05
0.000125026
-3.74271e-05
-0.000105816
-9.70288e-05
0.000180479
2.01131e-05
3.31968e-05
4.16909e-05
0.000125363
-0.000130525
0.000146989
3.85052e-05
-9.2203e-05
-5.5274e-06
-2.88951e-05
-7.75097e-05
-0.00016559
-6.21091e-05
8.73231e-05
0.00013541
-5.54549e-05
8.27911e-05
8.54187e-05
0.000115635
-8.62868e-05
4.55808e-05
0.000119126
0.00018409
2.40607e-06
0.000137161
5.34614e-05
5.22614e-05
5.6846e-05
0.000167474
-5.51224e-05
-1.33798e-05
-4.05208e-05
-0.000125639
6.856e-05
-1.32681e-05
3.22426e-05
-2.875e-05
-4.65669e-05
-8.74826e-05
-7.05925e-05
7.68013e-05
-9.855e-05
4.49251e-05
-7.86617e-05
9.82091e-05
-0.000145106
-0.000182992
0.000104832
-1.31568e-05
-7.5503e-05
0.000210964
-6.38552e-05
8.74364e-05
0.000118602
-0.000142688
0.000153399
0.000188842
-0.000133898
-3.04489e-05
-8.05344e-05
-1.98926e-05
-2.80347e-05
5.00235e-05
-0.000123372
-0.000185927
2.17023e-05
2.22625e-05
-4.22011e-05
8.2836e-05
-0.000114716
-1.43953e-05
-3.4062e-05
-0.00010146
3.65769e-05
-5.14564e-05
0.000108135
-1.38627e-05
-8.48665e-05
1.70886e-05
0.000166329
4.82555e-05
-0.000137475
-0.000130724
-9.48517e-06
4.53352e-05
-0.000128979
5.08634e-05
1.61456e-05
-0.000157478
0.000116753
-5.8652e-05
-9.88645e-06
2.70255e-05
5.98143e-05
5.88681e-05
7.47675e-05
-2.03856e-05
6.78024e-05
-9.19697e-05
-5.69073e-06
-0.000144547
0.00017434
-1.03797e-05
-3.03995e-06
3.54417e-05
7.37596e-05
5.4342e-05
-7.24928e-05
-4.3993e-05
-3.61344e-05
2.63087e-05
0.000149056
6.77112e-05
-0.000108175
2.75206e-07
-0.000102251
0.000191155
-4.92204e-07
2.48825e-05
1.41293e-05
-5.52987e-05
-0.000112945
1.64517e-05
5.99901e-05
-0.000104574
-2.01636e-05
-2.06162e-05
-2.06784e-05
2.71753e-05
3.29529e-05
9.95214e-05
-4.5678e-05
-3.40317e-06
3.48247e-05
5.44939e-05
4.12605e-05
0.000162435
-7.5497e-05
-7.04981e-05
-8.71019e-07
0.000148986
8.32423e-05
6.13602e-05
7.60476e-05
-1.61112e-05
-8.15629e-06
0.000102876
4.52764e-05
3.04845e-06
1.02995e-05
9.89577e-05
-6.89174e-05
3.38098e-05
7.08601e-05
-5.00826e-05
-0.000160351
2.85004e-05
-3.94692e-05
0.000187724
0.000159626
2.64988e-05
9.43413e-05
4.6271e-05
5.01343e-06
-5.53369e-06
0.00016653
-0.000108887
6.76442e-05
7.9785e-05
2.64238e-05
-3.33127e-05
-3.69876e-05
0.000154183
-0.000138619
-8.34804e-05
3.13437e-05
1.95624e-06
7.74233e-05
-8.67886e-05
-0.000106185
0.000124943
-3.2715e-06
3.75248e-05
9.61646e-05
-6.26924e-05
0.00019247
1.74507e-07
-0.000103404
-1.46431e-05
-7.02792e-05
0.000126966
-4.42558e-05
-3.12377e-05
-6.08346e-05
0.000185488
6.59458e-06
-2.88463e-05
2.55718e-06
-4.19507e-05
2.88815e-05
-7.87321e-05
-0.000245336
-4.55696e-06
1.4191e-06
-2.96715e-05
-0.000100694
6.97648e-05
9.95682e-05
2.10069e-05
9.20027e-05
0.000134083
6.70739e-06
-3.21707e-05
-1.05819e-05
0.000141856
-7.66045e-05
-3.0268e-05
-9.20403e-05
-5.64926e-05
-6.99647e-05
-1.04203e-06
-3.12676e-05
-1.03472e-05
-1.91759e-05
6.47362e-06
-1.19125e-05
1.19002e-05
-0.000124219
-0.000133447
2.95365e-05
2.01787e-05
7.01152e-05
-6.80154e-05
0.000112858
-5.64295e-05
-0.000102792
3.18147e-05
9.65786e-05
0.000142974
-0.00021521
-2.51558e-05
0.000155176
-7.0878e-05
-1.83494e-06
-9.00576e-05
-6.1238e-05
3.0627e-05
-2.73809e-05
0.000121417
-7.09179e-06
-0.00013656
5.4209e-05
-8.18307e-06
-8.82485e-05
-4.20748e-06
6.04574e-05
1.07288e-06
-0.000111191
-8.29691e-05
-0.000135972
-2.61228e-05
7.20011e-05
-0.000131597
2.96033e-05
2.28289e-05
-6.37445e-05
0.00025458
-1.29704e-05
-0.000103429
-5.66981e-05
-0.000126446
-7.45128e-06
9.49728e-05
-0.000134314
2.4123e-05
-7.8407e-05
9.75836e-05
3.62005e-05
9.45162e-05
2.15509e-05
-2.06127e-05
-3.88102e-05
-0.000148646
0.000226774
9.6369e-05
-7.63233e-05
2.87781e-05
8.77602e-05
-8.39323e-05
-2.85241e-05
0.00010019
-0.000145643
7.67789e-05
4.41065e-05
6.33273e-05
3.54645e-05
-4.7019e-05
6.01051e-05
0.000238689
-1.13718e-05
1.32809e-05
4.61282e-05
9.35654e-05
0.000111443
6.89395e-05
4.29254e-05
5.7176e-05
-0.000123357
-2.57513e-05
2.09775e-05
-7.54534e-05
-5.30498e-05
3.71726e-06
-4.13262e-05
0.000107549
-7.41163e-05
-8.38639e-05
3.1566e-05
-0.000155529
-4.05964e-06
8.19244e-05
7.88571e-05
8.92137e-06
-0.000158252
0.000104388
6.37081e-05
-9.68606e-05
8.46991e-06
-2.2642e-05
2.02245e-05
-5.80798e-05
-4.53767e-05
-0.000111838
-1.58466e-05
4.66687e-05
8.89634e-06
1.84822e-05
0.000207151
1.02583e-05
3.13811e-05
0.000133192
4.81968e-05
4.80294e-05
4.55589e-05
2.47974e-05
0.000182448
-2.09905e-05
-5.10683e-05
-0.00016566
-1.12365e-05
1.81834e-05
-8.31875e-05
-4.87242e-05
-7.17351e-06
6.01704e-06
-7.74848e-05
6.1496e-05
8.30097e-05
5.09627e-05
-9.22207e-06
-1.73699e-05
4.86069e-06
0.000144273
-9.19844e-05
-0.000114029
-6.52783e-05
-1.09936e-05
8.5671e-05
-5.85453e-07
-1.54502e-05
0.000174422
0.000100694
-6.3209e-05
-0.0001399
1.76432e-05
-7.06057e-05
3.54815e-05
-0.000141505
8.52003e-05
7.95142e-05
-0.000127984
1.78958e-05
4.6322e-05
0.000139067
-4.06974e-05
-0.000219237
1.18928e-05
6.91265e-05
0.000103412
3.01388e-05
1.81207e-05
-8.48222e-05
-2.77938e-05
-3.61353e-05
-4.225e-05
2.46968e-05
-0.000103875
-0.000121247
-1.83885e-05
-5.68033e-05
-0.000118192
-0.000102747
9.25113e-05
2.27757e-05
1.13467e-05
-0.000100635
-2.48381e-05
-9.26377e-05
3.89394e-05
5.67286e-05
-3.55965e-05
7.58739e-05
0.000112991
2.82427e-05
-6.06352e-05
1.33619e-05
-4.06096e-05
-1.77711e-05
8.73173e-05
-0.000233145
-0.000133023
0.000155851
-4.31322e-05
-1.50559e-05
-9.80089e-06
-1.25053e-05
3.9553e-05
-6.42722e-05
3.49199e-06
-0.000116737
-9.34466e-06
2.47868e-05
7.48532e-05
-0.000201997
-7.66102e-05
5.21203e-05
6.21413e-05
-2.86261e-05
-7.18144e-05
-8.01751e-05
-4.28616e-05
9.60892e-06
-5.67324e-05
-7.19776e-05
-4.84581e-05
1.45549e-05
0.000141873
0.00012703
1.97336e-06
9.00914e-05
5.61429e-05
-0.000165351
3.27242e-05
-6.42668e-05
9.19827e-05
-1.09896e-06
0.000159574
-1.11901e-05
-3.98192e-05
0.000106628
2.95399e-05
0.000145453
-0.000168277
-0.000103097
-5.23587e-05
4.49666e-06
2.28058e-06
6.18855e-05
-3.49613e-05
-0.000110267
8.1986e-05
-8.72052e-05
0.000166318
-0.000134454
4.82153e-05
-8.8478e-06
-3.29828e-06
7.42726e-05
-5.85737e-05
3.09363e-05
5.62868e-07
-9.50581e-05
6.60259e-05
-2.82364e-05
-8.4132e-05
-6.0437e-05
5.38506e-05
0.00025675
-0.000159862
2.50965e-05
3.67749e-05
-2.15392e-05
7.59182e-05
-7.97822e-05
0.000149188
-0.000147422
7.61396e-05
-3.72762e-05
2.41606e-05
-6.29654e-05
-3.29041e-05
1.48162e-05
-4.53112e-05
-8.09516e-05
-7.09491e-05
0.000223434
-8.89181e-05
-7.10957e-05
5.09383e-05
-0.000254145
2.66444e-05
0.000193971
1.40863e-08
6.41407e-05
-9.98838e-05
3.32806e-05
4.92504e-05
4.34162e-05
-0.000144352
7.04249e-05
-1.69699e-06
-0.0001046
-6.99658e-05
-2.57371e-06
3.46662e-06
0.000126864
-8.41725e-05
0.00011235
-7.54255e-06
7.811e-06
-0.000189092
2.34593e-05
-8.62719e-06
-0.000121178
-2.05013e-05
-6.07874e-06
5.29642e-05
-0.000192091
-9.772e-05
-8.92673e-07
-9.43686e-06
-0.000140861
1.41956e-05
0.000150769
-2.41942e-05
-5.04702e-05
-0.000102181
-7.32185e-05
4.00087e-05
-8.40153e-05
-2.61981e-06
7.2165e-05
-5.01587e-06
-0.000208036
-5.41103e-05
5.78305e-05
3.01213e-06
-0.000111918
6.54079e-06
-5.46844e-05
-5.0874e-05
-0.000133588
3.31153e-05
-4.74136e-06
-5.7837e-05
1.08756e-05
-4.19096e-05
-7.33049e-05
-5.93817e-05
-6.37663e-05
-7.91914e-05
0.000179464
1.76672e-05
2.4175e-05
4.90121e-05
9.09177e-05
1.51545e-05
2.9835e-05
0.00012313
-3.18809e-05
-5.28051e-05
4.12744e-05
-3.41272e-05
3.48021e-05
5.96382e-05
4.79476e-05
4.51226e-05
-8.75881e-05
-0.000116376
0.000112258
0.000105033
5.79008e-05
-5.89757e-05
-0.000101084
-4.49349e-05
1.35779e-05
-8.03011e-05
-7.24148e-05
-5.80534e-05
-8.03941e-06
8.58203e-05
4.42255e-05
1.96768e-05
6.93052e-05
-1.14448e-05
4.66332e-05
0.000114619
6.39141e-05
2.4543e-05
1.20529e-05
-3.64085e-05
0.000183935
-4.00507e-05
-9.58396e-05
-7.97369e-05
-6.42387e-05
0.000156117
-6.3636e-05
-2.02823e-05
4.17326e-06
-4.45123e-05
7.46371e-05
4.88355e-05
-3.63681e-05
-0.000136864
2.26921e-05
8.50554e-05
-0.000120948
5.87197e-05
8.04808e-05
0.000141267
-9.61539e-05
-4.66133e-05
9.0152e-06
9.69367e-06
-7.78132e-05
-0.000100693
-1.29176e-05
-5.87935e-05
0.000103821
-6.09956e-05
8.94497e-05
9.45112e-05
-0.000128505
-4.94944e-05
-4.36888e-05
-7.08307e-05
-0.000152903
8.99583e-05
3.93861e-05
-3.43997e-05
8.36038e-05
-8.62685e-05
1.90382e-05
0.000105029
6.92391e-05
-0.00015256
-1.11229e-05
1.29406e-05
-3.59841e-05
-0.000109606
-9.22428e-06
4.99609e-05
-0.000108295
-2.22259e-05
0.000162948
-3.69204e-05
-8.13971e-05
7.08323e-05
7.32476e-05
-0.000151626
1.86785e-05
-8.27658e-05
0.000149286
0.000208639
-8.35501e-05
0.000200181
-0.000120059
-1.88105e-05
6.65955e-05
2.44031e-05
3.58019e-05
-2.18061e-05
2.20281e-05
9.15932e-06
-1.01889e-05
7.73016e-05
0.000114985
0.000149647
-0.00023387
-7.64144e-05
-7.88826e-05
-9.34929e-05
-2.89037e-05
-6.38496e-05
-1.02562e-05
6.80237e-05
8.0991e-05
-9.7729e-05
-4.77609e-05
2.20702e-05
-9.0726e-06
-7.34444e-05
-2.4792e-05
-5.54189e-05
-0.000158401
-0.000131674
-0.000131402
0.000161567
-3.50329e-06
0.000106311
6.27387e-05
8.72301e-05
2.11259e-05
-3.42301e-05
6.9758e-05
-0.000100716
-5.44623e-05
3.59351e-05
0.000133589
-0.000108584
-3.32652e-05
3.54219e-05
1.38134e-05
0.000106503
3.6929e-05
-6.15637e-05
1.43028e-06
3.04123e-06
-1.18784e-05
4.29847e-05
-0.000108531
5.9281e-05
-7.51647e-06
-9.04318e-05
0.000141919
-2.30515e-05
6.78888e-06
3.79233e-05
-0.000152062
4.06207e-05
5.02758e-05
0.000112594
0.000128136
-0.000125756
1.05309e-05
-5.09266e-05
2.98411e-05
2.5791e-05
-8.11837e-05
0.000115301
6.59632e-05
6.76941e-05
-0.000130827
-0.00011262
0.000101886
1.27067e-06
4.5331e-05
-8.13745e-05
-5.44186e-05
1.97908e-05
0.000133827
-0.000102773
2.49994e-05
2.97733e-05
-0.000129572
0.000129192
0.000223764
-9.91626e-05
3.28547e-05
-1.16029e-05
-8.31762e-05
-9.07928e-05
0.000253356
5.35444e-05
8.99073e-05
-1.28825e-05
1.56282e-05
-1.35124e-05
-6.94771e-05
0.000116717
6.96629e-07
-0.000128638
9.77188e-05
-3.59088e-05
7.80518e-06
-3.26311e-05
2.09024e-06
-0.000176927
3.63817e-05
8.55341e-05
3.70922e-06
-5.72652e-05
-6.51205e-05
3.48393e-05
7.93119e-05
-2.30514e-05
-9.24058e-05
0.000148317
2.08891e-05
-0.000112436
-1.74949e-06
2.79106e-05
0.000137689
2.49795e-05
9.28801e-05
-7.9181e-05
-3.03595e-05
-2.9176e-05
-9.09553e-05
2.60477e-05
5.77992e-05
-3.75831e-05
-1.97818e-05
0.000156924
1.18945e-05
-4.09652e-05
-4.77931e-06
6.18375e-05
3.51772e-05
-7.29747e-05
2.94539e-05
-4.75405e-05
-0.000199166
-5.49511e-05
0.00011342
1.65846e-05
0.000119958
-4.95455e-05
-5.48705e-05
-4.40066e-05
-0.00013232
-1.10681e-05
-3.26023e-05
2.95192e-05
-6.70103e-05
-5.68002e-05
4.42582e-05
0.000101565
-3.75578e-05
6.88519e-05
2.77112e-05
-1.84722e-05
6.67945e-06
2.38252e-05
-5.53911e-05
-4.54467e-05
-0.000216462
-2.11403e-05
-1.8084e-06
-2.24016e-05
-1.20922e-05
0.00010017
-2.95333e-05
-7.85104e-05
-5.64099e-05
3.54518e-05
-0.000122102
2.5357e-05
-5.1548e-05
-4.73848e-05
-0.000177943
9.91318e-05
-2.02777e-05
-9.05283e-05
-0.000160802
3.15862e-05
2.08627e-05
0.000123532
2.62e-05
0.000129311
0.000128507
-0.000103171
0.000114865
-0.000114433
-0.000105036
8.21952e-05
2.43413e-06
-7.25689e-05
7.05032e-05
-7.86397e-05
6.73996e-05
-0.00012797
-0.000100283
-0.000118212
-7.90134e-05
0.000137716
0.000141568
9.92988e-06
7.1906e-05
0.00010033
2.52512e-05
1.47452e-06
8.82399e-05
5.75717e-05
-6.24526e-05
8.5198e-05
-0.000157948
1.81696e-05
-3.88618e-06
4.89351e-05
4.22925e-05
-0.000100306
-1.68732e-06
-1.68708e-05
0.000236001
-3.15236e-05
0.000154999
8.43904e-05
-0.000178591
-0.000125187
8.14857e-05
0.000228193
9.75169e-05
5.02612e-06
-2.93704e-05
-2.13406e-05
-8.04651e-06
0.000111529
1.97906e-07
1.4717e-05
2.26221e-05
-5.05626e-05
-1.86266e-05
-9.56485e-05
1.27167e-05
-6.36966e-06
-4.83727e-05
-0.000162495
-0.000150669
-0.000123185
-0.000130301
-0.000143541
2.76939e-05
-1.19655e-05
2.78476e-05
9.66764e-05
-0.000155889
-2.90858e-05
4.30581e-05
5.52197e-05
5.57833e-05
-7.19579e-05
8.21794e-05
3.18e-05
-1.6143e-05
0.000118334
-3.50525e-05
6.98173e-05
5.22404e-05
-7.46018e-05
0.000128428
6.87912e-05
5.37096e-05
0.000164081
-6.8103e-06
5.29112e-05
6.0758e-05
0.00010507
-3.67899e-05
6.41254e-05
3.23202e-05
1.7389e-05
-6.47983e-05
3.52538e-05
-5.44684e-06
-5.82709e-05
1.32605e-05
7.89622e-06
3.9204e-06
-6.19178e-05
-0.000115363
0.000189381
-7.03009e-05
3.24489e-05
-1.29218e-05
1.29638e-05
3.50391e-05
-3.84762e-05
-0.000227834
1.54441e-05
6.68492e-05
0.000208984
-0.000137775
-0.000119737
3.37954e-06
-6.67842e-05
5.28111e-05
0.000212002
-5.04095e-05
4.52353e-05
6.23981e-05
6.92625e-06
3.3339e-05
-6.37037e-05
-0.000141853
-8.25964e-05
-2.8328e-05
6.21283e-05
7.06126e-05
-5.41138e-05
7.35447e-05
-7.91077e-05
-5.05357e-05
-4.26946e-05
-7.86115e-05
0.0001346
8.86398e-06
2.62028e-06
-3.53691e-05
-5.94271e-05
3.82786e-05
0.000139264
3.07456e-05
7.92183e-06
-4.54555e-05
9.66461e-05
-7.32993e-05
5.74498e-06
0.000131036
-4.60168e-05
6.88416e-05
1.54728e-05
-8.83698e-05
-5.20656e-05
1.93807e-05
-2.46967e-05
-0.000105775
5.53711e-05
8.18245e-05
-1.16578e-05
7.75493e-05
-7.53815e-05
1.98967e-05
-6.5505e-05
8.65606e-05
-3.59194e-05
3.04584e-05
-5.88947e-05
9.53022e-06
8.25463e-05
7.46214e-05
0.00012271
-5.17641e-05
-0.000140594
0.00019018
9.21101e-06
3.64258e-05
9.16629e-05
-3.47007e-05
4.36617e-05
3.07767e-05
-0.000150938
-8.95242e-05
0.000129957
-3.13125e-05
-7.87963e-05
6.66198e-06
-1.89361e-06
5.44358e-05
-0.00015793
6.44324e-05
4.38909e-06
3.60436e-05
-2.89263e-05
8.61718e-05
-1.95209e-05
0.000125604
-4.93159e-05
-0.000227412
-8.44896e-05
5.98041e-05
9.87018e-05
1.23552e-05
-5.95482e-05
-9.3849e-05
-3.7991e-06
9.86282e-06
2.55558e-05
-2.09049e-05
5.29059e-05
0.000165624
1.71978e-05
-1.62059e-05
8.63126e-05
9.68995e-05
0.000138409
-7.13125e-05
-9.83442e-05
-0.000187773
5.00737e-05
-0.000108282
-4.20375e-05
5.10599e-05
-1.11756e-05
-0.000140329
-4.61563e-05
9.76487e-05
1.93319e-06
0.000108967
-0.000172523
9.25374e-06
-0.000121085
-5.38626e-05
0.000162285
6.13241e-05
-2.99662e-05
7.61804e-05
0.000115906
-6.3794e-05
3.29332e-05
2.14529e-05
-4.1126e-06
5.75271e-05
2.30666e-05
2.59973e-05
-0.000109766
-5.54885e-05
-8.38353e-06
2.87625e-05
9.90402e-05
-4.36298e-05
1.81708e-05
-0.000169497
6.91155e-05
0.00012983
-9.32174e-05
-1.71874e-05
-6.7856e-05
-1.37768e-05
-2.54693e-05
4.15121e-05
2.24677e-05
-9.0669e-05
2.38989e-06
2.23625e-05
-1.01804e-05
-2.06264e-05
8.91825e-05
-1.0496e-06
-7.01814e-05
6.7712e-05
-0.000114379
0.00017775
6.07079e-05
-6.39324e-05
-4.53339e-05
-9.15689e-05
5.09659e-05
0.000144512
3.63751e-06
9.31625e-06
-4.96005e-05
-2.26521e-05
-0.000135984
6.17018e-05
-8.23088e-05
-2.61462e-05
6.40767e-05
-3.3193e-05
3.07765e-05
8.76582e-05
-0.000151893
-5.16763e-05
1.66295e-05
-6.09262e-05
-0.000119047
6.8118e-05
1.12379e-05
-9.24431e-06
-5.5396e-05
0.000118444
-2.72864e-05
-0.000138147
4.61022e-05
4.37244e-06
3.15581e-05
-5.22429e-05
-7.02608e-05
5.66058e-05
0.000132813
0.000165444
0.00012442
5.91398e-05
-9.197e-05
1.81688e-05
6.40913e-06
8.7154e-05
4.34432e-05
8.68461e-05
-6.83205e-05
2.92055e-05
-3.11069e-05
2.90945e-05
7.03547e-05
-7.91653e-05
0.000121496
1.46352e-05
-3.8685e-05
-5.53844e-05
-9.60239e-05
0.000150604
4.09506e-05
-7.54477e-05
-6.59028e-05
3.99821e-05
-3.86501e-05
0.000112857
-0.000197858
4.93139e-05
-6.38686e-05
-1.7704e-05
-2.65976e-05
-0.000101566
-1.8475e-05
-3.32673e-05
-1.24198e-05
-1.43057e-05
2.1155e-06
-3.65267e-05
2.22864e-05
-5.77043e-05
0.000197708
-0.000151495
-5.89499e-05
0.00013778
2.68318e-05
-9.80288e-05
-0.000124932
3.1143e-05
-1.91443e-05
1.89792e-06
9.94831e-05
0.00023289
7.02444e-05
-0.000154902
-8.72561e-05
0.000162866
4.77792e-06
-3.19141e-06
2.80289e-05
5.15268e-05
2.49967e-05
0.000113019
-0.00010313
6.4288e-06
-6.80697e-05
5.21248e-05
9.9809e-05
3.75335e-05
-1.25122e-05
2.7868e-05
-0.000175121
-3.98161e-05
0.000127756
5.71331e-06
-4.73845e-06
2.42181e-05
-0.000104495
-2.66114e-06
-0.000126257
-6.13291e-05
4.57136e-05
-2.78153e-05
7.88628e-05
0.000187592
0.000142461
-7.18029e-05
3.68713e-05
-7.99713e-05
-9.76787e-05
8.35126e-05
-7.66612e-05
1.73708e-05
3.8821e-05
3.76342e-05
-6.60972e-05
-4.90415e-05
-7.5479e-06
-0.000157611
7.44855e-05
0.000110231
0.000165343
-0.000116037
5.68122e-05
2.02926e-05
-4.26093e-05
4.47263e-05
-3.47779e-05
-3.89838e-05
-7.47688e-05
4.80479e-05
9.04489e-05
-5.58108e-05
-1.13852e-05
3.43565e-06
0.000201405
-5.2454e-05
6.94708e-05
-1.13552e-06
-8.97853e-05
6.21262e-06
-1.40303e-05
-5.95945e-05
3.46323e-05
0.000132578
-3.57158e-05
3.04382e-05
0.000111535
1.88514e-05
-1.74167e-05
-4.32124e-05
-1.18217e-05
-1.31922e-06
2.33714e-05
-2.01707e-05
-7.93709e-05
0.000145506
1.79218e-05
-2.63035e-05
-3.20199e-05
7.61126e-05
-8.72661e-06
-0.000197836
-0.000123453
2.00714e-05
4.62934e-05
0.000133335
-1.32769e-05
2.91374e-05
4.53094e-05
-3.26462e-05
-4.05909e-05
0.00012126
6.0939e-05
1.83126e-05
-6.41078e-05
8.71442e-05
-3.52127e-05
-2.23258e-05
2.69902e-05
-0.000210486
0.000114812
-9.10569e-05
0.00014374
1.79431e-05
1.02354e-05
-2.47062e-05
8.52564e-05
0.000171645
-1.39991e-05
-7.11633e-05
-7.28322e-05
5.84442e-05
5.29921e-05
6.56096e-05
-9.69054e-05
-1.35744e-05
0.000129801
0.000239294
-4.43285e-05
3.97889e-05
-1.95487e-05
9.60255e-05
-3.60284e-05
-0.000116182
-2.88163e-05
-4.16207e-05
0.000108467
7.31414e-06
2.43826e-05
-3.95869e-05
-9.52769e-05
0.000234467
8.88016e-05
5.22874e-05
7.42772e-05
6.16394e-05
-4.00972e-05
-8.55419e-05
-0.000195942
-9.6239e-05
-2.46788e-05
4.10401e-05
7.28231e-05
-1.15087e-05
0.000226808
0.000109815
-0.000132022
-9.46294e-06
7.56362e-05
-8.9485e-06
3.65067e-05
0.000156297
0.000201727
3.54768e-05
0.00015469
-1.7944e-05
9.59339e-05
9.93996e-05
-0.000144887
-0.000179458
-5.57557e-05
-0.000112793
4.62697e-05
9.80368e-06
-3.30921e-05
-6.04563e-05
4.98875e-06
6.31221e-05
-4.55345e-05
8.08996e-05
-4.53433e-05
-5.27856e-05
-3.14554e-06
-3.57055e-05
-9.52999e-06
-6.95039e-05
0.000112653
3.84289e-05
3.97172e-05
0.00011879
0.000150988
-1.5148e-05
-7.94136e-05
9.34897e-06
-0.000194301
9.04908e-06
0.000121529
0.000118377
1.48942e-05
-4.72449e-05
-0.000137434
9.47146e-05
7.65388e-05
2.43279e-05
-5.1956e-05
-9.07072e-05
-7.84027e-05
-0.00013318
0.000166111
0.000142645
-1.28022e-05
-6.76466e-06
6.35246e-05
-0.00016043
6.1154e-05
6.39409e-05
-4.49235e-05
-0.000135077
6.33211e-05
-1.69151e-06
7.03939e-05
-3.51341e-06
2.15792e-05
-9.54929e-05
4.52856e-08
3.93006e-06
-0.000138939
-4.66087e-05
-2.13991e-05
3.8251e-05
4.52858e-05
-5.1139e-05
-4.63855e-05
-3.81474e-05
-3.43004e-05
0.000192354
7.41844e-05
0.000221835
0.000152335
-0.000181402
7.7131e-05
-2.89916e-05
-3.5278e-05
-1.87596e-05
3.99144e-05
7.15946e-05
0.00011
-1.74599e-05
4.86126e-05
1.13272e-07
-2.96722e-05
-2.09548e-08
3.66988e-05
7.5239e-05
-6.67826e-05
-0.00012009
0.000114192
-8.33062e-05
0.000195565
-3.68108e-05
-4.9243e-05
-4.45821e-05
-6.7284e-05
-4.47981e-05
5.05158e-05
9.99533e-05
-0.000119873
-7.21817e-05
3.08803e-05
1.09179e-05
-6.43217e-05
-1.27673e-05
0.000136611
2.14309e-05
-8.01785e-05
0.000107603
-1.9524e-06
1.5565e-05
-0.000126493
-4.68822e-05
8.12868e-05
-2.0891e-05
-8.32623e-05
0.000186635
0.000197409
5.88673e-05
-0.000151033
-0.000109854
-0.000144197
-1.88318e-05
-2.3338e-05
9.07426e-05
0.000110765
8.38307e-07
0.000269337
6.35919e-06
-0.000178776
4.82051e-05
7.14092e-07
4.82122e-06
-7.97906e-05
-8.61994e-05
-1.99099e-05
-4.88925e-05
9.48089e-05
-7.22473e-07
0.000105487
-5.55773e-05
-3.23025e-05
-5.79772e-06
7.00363e-05
-2.66409e-05
5.87769e-06
2.30994e-05
-2.69382e-05
-3.54312e-05
0.000121423
-0.00019233
6.66257e-05
5.33484e-05
-3.13583e-05
-0.000112701
3.98422e-05
8.37329e-05
-0.000135248
-0.000129601
-3.15751e-05
-7.25344e-05
9.45916e-05
8.67741e-05
-0.000117806
-4.82253e-05
2.83634e-06
-0.000207579
2.65404e-05
0.000114953
2.7722e-06
-5.15216e-05
9.70061e-05
0.000128563
-5.79398e-05
4.13866e-05
8.48338e-05
-4.58399e-05
-9.13241e-05
0.000140747
2.60652e-05
-9.71522e-05
7.65487e-05
1.62685e-05
-0.000120146
-0.000104043
-4.25781e-05
0.000110973
2.52869e-05
-0.000134327
-6.40895e-05
0.000116879
5.98417e-05
-7.31118e-05
3.84441e-05
-2.63028e-05
-4.34949e-05
-9.02766e-05
2.12614e-05
-6.14577e-05
0.000181006
6.66182e-05
-0.00014922
-9.56736e-06
0.000104835
8.10268e-05
3.1744e-05
-2.58493e-05
-5.59185e-05
1.56061e-05
-4.15964e-05
4.94544e-05
-7.84525e-05
-0.0001203
1.88593e-05
3.40242e-05
-0.000102925
-9.41434e-05
-6.72649e-05
-2.0402e-05
-4.34603e-05
1.14385e-05
7.69983e-05
-0.00020248
-7.01298e-06
5.6959e-05
0.000138873
2.73646e-06
-1.34443e-05
0.000141716
-9.78189e-05
-1.75687e-05
-0.000114249
-4.51761e-06
0.000133411
-1.63736e-05
2.38846e-05
0.000114089
-1.51454e-05
5.78049e-06
-5.89266e-05
0.000106519
-0.000110708
6.32808e-05
0.000123234
-7.25348e-05
-4.84323e-06
4.08351e-05
-9.35467e-06
-0.000105669
-4.5579e-05
0.000124542
-6.00487e-05
-4.19326e-05
-0.000133914
-2.70049e-05
-2.5199e-05
5.45662e-06
-5.03601e-06
-7.69207e-05
6.50471e-06
0.000116326
0.000127374
0.000166731
-1.05565e-05
-0.000206479
0.000182522
7.48386e-05
-2.78914e-05
7.52546e-05
-4.91736e-05
-1.85495e-05
-1.1424e-05
3.40784e-05
-3.84294e-05
-7.33604e-05
8.69255e-05
6.50196e-05
-9.85952e-05
-5.78456e-06
-1.07904e-05
-5.80209e-05
-9.20605e-05
2.76715e-05
-8.15354e-05
-7.98199e-05
2.13585e-05
0.000112224
9.84109e-05
7.53235e-05
-0.000211936
0.000163681
-7.1971e-05
4.48036e-06
-3.96579e-05
5.87144e-05
3.47937e-05
3.47581e-05
2.93546e-05
4.70446e-06
5.54372e-05
-1.48604e-06
-0.000124395
-3.48338e-06
-5.07146e-05
-2.09997e-05
0.000129396
-2.92573e-05
2.09175e-05
-7.05537e-05
-0.000171928
-3.46856e-05
0.000154134
-4.65247e-05
0.000150401
-1.40688e-05
2.78039e-05
-4.51301e-05
9.39483e-06
0.000141183
3.29126e-05
-4.06131e-05
6.58382e-05
3.87591e-05
-2.93372e-05
-3.00345e-05
-5.72321e-06
6.48908e-05
-3.88516e-05
0.000130689
-4.96433e-05
7.59357e-05
-3.69508e-05
9.97796e-06
-6.46462e-05
3.62757e-05
-2.4982e-05
-3.81779e-05
1.75789e-05
-6.32813e-05
-6.81193e-05
7.20699e-05
-4.26058e-05
-4.93639e-05
-9.92032e-05
-0.000139118
9.75181e-05
-3.39865e-05
-0.000114887
-0.000112189
4.04845e-05
-2.1592e-05
-4.61722e-05
0.000109451
7.06455e-05
-4.02326e-05
6.59096e-05
-3.0046e-05
4.02903e-05
0.000171771
-0.000140593
-0.000213176
-5.79011e-05
-5.55324e-06
6.445e-05
-0.000166967
8.32403e-05
7.40776e-05
-5.5806e-06
1.56965e-05
0.000152073
4.79021e-05
2.48021e-05
-1.09856e-05
-6.54357e-05
-9.80825e-05
-5.30049e-05
-2.28534e-05
0.000155693
6.3809e-05
4.59803e-05
-3.64105e-05
-0.000112674
-4.98451e-05
1.40641e-05
6.13066e-06
-2.21181e-05
3.62452e-05
6.27337e-05
2.96992e-05
7.35474e-05
-3.0898e-05
-8.75967e-05
1.02597e-06
0.000234072
-6.07657e-05
-8.99269e-05
4.31336e-05
9.36026e-05
4.04282e-05
-5.69946e-06
-7.08201e-05
-1.62119e-05
-8.73024e-05
-9.1234e-05